! TOUCHSTONE file generated by CST MICROWAVE STUDIO
! Date and time: Mon Mar 23 00:53:37 2026
! Project name: hornfrfr_sheet_4.cst
! Header version: 2024
! Port assignment regex: !\s*Touchstone port\s*([0-9]+)\s*=\s*(CST MWS port|CST DES external port|CST DES block port)\s*(.+)\s* \(\"(.*)\"\)(\s*mode\s*([0-9]+))?.*
! Touchstone port assignment:
! Touchstone port 1 = CST MWS port 1 ("")
# GHz S MA R 50
1                    0.911787909     -127.787323
1.001                0.910916172     -127.937901
1.002                0.910037994     -128.088673
1.003                0.909153367     -128.239637
1.004                0.908262285     -128.390793
1.005                 0.90736474      -128.54214
1.006                0.906460725     -128.693679
1.007                0.905550235     -128.845408
1.008                0.904633263     -128.997326
1.009                0.903709802     -129.149434
1.01                 0.902779848     -129.301731
1.011                0.901843394     -129.454215
1.012                0.900900435     -129.606887
1.013                0.899950967     -129.759745
1.014                0.898994983      -129.91279
1.015                 0.89803248      -130.06602
1.016                0.897063454     -130.219435
1.017                0.896087899     -130.373034
1.018                0.895105813     -130.526817
1.019                0.894117192     -130.680782
1.02                 0.893122033      -130.83493
1.021                0.892120331      -130.98926
1.022                0.891112085      -131.14377
1.023                0.890097292     -131.298461
1.024                 0.88907595     -131.453331
1.025                0.888048056     -131.608381
1.026                0.887013609     -131.763608
1.027                0.885972607     -131.919013
1.028                0.884925049     -132.074595
1.029                0.883870934     -132.230353
1.03                 0.882810261     -132.386287
1.031                 0.88174303     -132.542395
1.032                0.880669241     -132.698678
1.033                0.879588893     -132.855134
1.034                0.878501988     -133.011762
1.035                0.877408525     -133.168563
1.036                0.876308506     -133.325534
1.037                0.875201931     -133.482676
1.038                0.874088803     -133.639988
1.039                0.872969123     -133.797469
1.04                 0.871842892     -133.955117
1.041                0.870710115     -134.112934
1.042                0.869570792     -134.270917
1.043                0.868424927     -134.429066
1.044                0.867272523     -134.587381
1.045                0.866113583      -134.74586
1.046                0.864948112     -134.904502
1.047                0.863776113     -135.063308
1.048                0.862597591     -135.222276
1.049                 0.86141255     -135.381405
1.05                 0.860220995     -135.540695
1.051                0.859022932     -135.700145
1.052                0.857818365     -135.859754
1.053                0.856607301     -136.019521
1.054                0.855389746     -136.179446
1.055                0.854165706     -136.339527
1.056                0.852935188     -136.499764
1.057                0.851698199     -136.660157
1.058                0.850454746     -136.820704
1.059                0.849204836     -136.981404
1.06                 0.847948478     -137.142257
1.061                 0.84668568     -137.303263
1.062                 0.84541645     -137.464419
1.063                0.844140798     -137.625726
1.064                0.842858731     -137.787182
1.065                 0.84157026     -137.948787
1.066                0.840275394      -138.11054
1.067                0.838974143      -138.27244
1.068                0.837666518     -138.434486
1.069                0.836352529     -138.596678
1.07                 0.835032187     -138.759014
1.071                0.833705504     -138.921495
1.072                 0.83237249     -139.084118
1.073                0.831033157     -139.246884
1.074                0.829687519     -139.409791
1.075                0.828335586     -139.572839
1.076                0.826977373     -139.736027
1.077                0.825612891     -139.899353
1.078                0.824242155     -140.062818
1.079                0.822865177      -140.22642
1.08                 0.821481973     -140.390159
1.081                0.820092555     -140.554033
1.082                 0.81869694     -140.718043
1.083                 0.81729514     -140.882186
1.084                0.815887173     -141.046463
1.085                0.814473052     -141.210873
1.086                0.813052795     -141.375414
1.087                0.811626416     -141.540086
1.088                0.810193933     -141.704888
1.089                0.808755362      -141.86982
1.09                  0.80731072      -142.03488
1.091                0.805860024     -142.200067
1.092                0.804403291     -142.365382
1.093                0.802940541     -142.530823
1.094                 0.80147179     -142.696389
1.095                0.799997058      -142.86208
1.096                0.798516363     -143.027894
1.097                0.797029723     -143.193832
1.098                0.795537159     -143.359892
1.099                0.794038691     -143.526073
1.1                  0.792534337     -143.692375
1.101                0.791024118     -143.858797
1.102                0.789508055     -144.025339
1.103                0.787986168     -144.191998
1.104                0.786458479     -144.358776
1.105                0.784925008      -144.52567
1.106                0.783385778     -144.692681
1.107                 0.78184081     -144.859808
1.108                0.780290127     -145.027049
1.109                0.778733751     -145.194404
1.11                 0.777171705     -145.361873
1.111                0.775604011     -145.529454
1.112                0.774030694     -145.697148
1.113                0.772451776     -145.864953
1.114                0.770867282     -146.032868
1.115                0.769277235     -146.200894
1.116                 0.76768166     -146.369029
1.117                0.766080582     -146.537272
1.118                0.764474025     -146.705624
1.119                0.762862015     -146.874083
1.12                 0.761244577     -147.042649
1.121                0.759621737     -147.211321
1.122                 0.75799352     -147.380099
1.123                0.756359953     -147.548981
1.124                0.754721063     -147.717969
1.125                0.753076875      -147.88706
1.126                0.751427418     -148.056254
1.127                0.749772717     -148.225551
1.128                0.748112801      -148.39495
1.129                0.746447697     -148.564451
1.13                 0.744777433     -148.734053
1.131                0.743102036     -148.903756
1.132                0.741421537     -149.073559
1.133                0.739735962     -149.243462
1.134                 0.73804534     -149.413464
1.135                0.736349702     -149.583565
1.136                0.734649075     -149.753764
1.137                 0.73294349     -149.924062
1.138                0.731232976     -150.094457
1.139                0.729517563     -150.264949
1.14                  0.72779728     -150.435538
1.141                0.726072159     -150.606224
1.142                0.724342229     -150.777006
1.143                0.722607522     -150.947884
1.144                0.720868068     -151.118858
1.145                0.719123897     -151.289927
1.146                0.717375043     -151.461092
1.147                0.715621535     -151.632351
1.148                0.713863405     -151.803705
1.149                0.712100686     -151.975154
1.15                 0.710333409     -152.146697
1.151                0.708561605     -152.318334
1.152                0.706785308     -152.490065
1.153                 0.70500455     -152.661891
1.154                0.703219364      -152.83381
1.155                0.701429781     -153.005824
1.156                0.699635835     -153.177931
1.157                 0.69783756     -153.350132
1.158                0.696034987     -153.522427
1.159                0.694228151     -153.694817
1.16                 0.692417084       -153.8673
1.161                0.690601821     -154.039878
1.162                0.688782394      -154.21255
1.163                0.686958839     -154.385317
1.164                0.685131188     -154.558179
1.165                0.683299475     -154.731135
1.166                0.681463735     -154.904187
1.167                0.679624002     -155.077335
1.168                 0.67778031     -155.250578
1.169                0.675932693     -155.423918
1.17                 0.674081187     -155.597355
1.171                0.672225824     -155.770889
1.172                0.670366641     -155.944521
1.173                0.668503671     -156.118251
1.174                0.666636949      -156.29208
1.175                0.664766511     -156.466008
1.176                 0.66289239     -156.640036
1.177                0.661014622     -156.814165
1.178                0.659133241     -156.988396
1.179                0.657248283     -157.162728
1.18                 0.655359783     -157.337164
1.181                0.653467774     -157.511704
1.182                0.651572293     -157.686348
1.183                0.649673375     -157.861099
1.184                0.647771053     -158.035956
1.185                0.645865364     -158.210921
1.186                0.643956342     -158.385995
1.187                0.642044022      -158.56118
1.188                0.640128439     -158.736475
1.189                0.638209627     -158.911884
1.19                 0.636287623     -159.087406
1.191                0.634362459     -159.263044
1.192                0.632434172     -159.438799
1.193                0.630502795     -159.614672
1.194                0.628568363     -159.790665
1.195                0.626630912     -159.966779
1.196                0.624690474     -160.143017
1.197                0.622747084      -160.31938
1.198                0.620800777      -160.49587
1.199                0.618851587     -160.672489
1.2                  0.616899547     -160.849238
1.201                0.614944691     -161.026121
1.202                0.612987053     -161.203139
1.203                0.611026667     -161.380293
1.204                0.609063565     -161.557588
1.205                0.607097782     -161.735024
1.206                0.605129349     -161.912605
1.207                0.603158299     -162.090333
1.208                0.601184666      -162.26821
1.209                0.599208482      -162.44624
1.21                 0.597229778     -162.624425
1.211                0.595248587     -162.802768
1.212                0.593264939     -162.981272
1.213                0.591278868      -163.15994
1.214                0.589290403     -163.338776
1.215                0.587299575     -163.517783
1.216                0.585306416     -163.696964
1.217                0.583310955     -163.876322
1.218                0.581313221     -164.055862
1.219                0.579313245     -164.235588
1.22                 0.577311056     -164.415502
1.221                0.575306683      -164.59561
1.222                0.573300153     -164.775915
1.223                0.571291495     -164.956421
1.224                0.569280737     -165.137133
1.225                0.567267906     -165.318057
1.226                0.565253027     -165.499195
1.227                0.563236129     -165.680553
1.228                0.561217235     -165.862137
1.229                0.559196372      -166.04395
1.23                 0.557173565     -166.225999
1.231                0.555148836     -166.408289
1.232                0.553122211     -166.590826
1.233                0.551093712     -166.773615
1.234                0.549063361     -166.956662
1.235                 0.54703118     -167.139974
1.236                0.544997191     -167.323556
1.237                0.542961413     -167.507416
1.238                0.540923866      -167.69156
1.239                 0.53888457     -167.875994
1.24                 0.536843543     -168.060727
1.241                0.534800801     -168.245765
1.242                0.532756362     -168.431116
1.243                0.530710242     -168.616787
1.244                0.528662455     -168.802787
1.245                0.526613015     -168.989123
1.246                0.524561936     -169.175805
1.247                 0.52250923     -169.362841
1.248                0.520454907      -169.55024
1.249                0.518398978     -169.738011
1.25                 0.516341451     -169.926163
1.251                0.514282335     -170.114707
1.252                0.512221637     -170.303653
1.253                0.510159361      -170.49301
1.254                0.508095512      -170.68279
1.255                0.506030094     -170.873003
1.256                0.503963107      -171.06366
1.257                0.501894551     -171.254775
1.258                0.499824427     -171.446357
1.259                 0.49775273      -171.63842
1.26                 0.495679458     -171.830976
1.261                0.493604603     -172.024039
1.262                0.491528158     -172.217621
1.263                0.489450115     -172.411737
1.264                0.487370462       -172.6064
1.265                0.485289187     -172.801626
1.266                0.483206274     -172.997429
1.267                0.481121707     -173.193825
1.268                0.479035466      -173.39083
1.269                0.476947532      -173.58846
1.27                  0.47485788     -173.786733
1.271                0.472766486     -173.985665
1.272                0.470673321     -174.185274
1.273                0.468578354     -174.385579
1.274                0.466481553     -174.586599
1.275                0.464382882     -174.788353
1.276                0.462282303     -174.990862
1.277                0.460179773     -175.194146
1.278                0.458075248     -175.398227
1.279                0.455968681     -175.603126
1.28                 0.453860021     -175.808866
1.281                0.451749213      -176.01547
1.282                0.449636199     -176.222963
1.283                0.447520918     -176.431368
1.284                0.445403305     -176.640712
1.285                0.443283289      -176.85102
1.286                0.441160798     -177.062319
1.287                0.439035753     -177.274637
1.288                0.436908072     -177.488003
1.289                0.434777668     -177.702446
1.29                 0.432644448     -177.917996
1.291                0.430508316     -178.134684
1.292                0.428369169     -178.352542
1.293                  0.4262269     -178.571603
1.294                0.424081394     -178.791902
1.295                0.421932531     -179.013473
1.296                0.419780186     -179.236353
1.297                0.417624226     -179.460577
1.298                0.415464511     -179.686185
1.299                0.413300896     -179.913216
1.3                  0.411133225       179.85829
1.301                0.408961338      179.628291
1.302                0.406785064      179.396744
1.303                0.404604226      179.163606
1.304                0.402418635      178.928831
1.305                0.400228096      178.692372
1.306                0.398032403      178.454181
1.307                 0.39583134      178.214209
1.308                 0.39362468      177.972406
1.309                0.391412187      177.728718
1.31                  0.38919361      177.483093
1.311                 0.38696869      177.235475
1.312                0.384737154      176.985808
1.313                0.382498715      176.734033
1.314                0.380253072       176.48009
1.315                0.377999913      176.223919
1.316                0.375738908      175.965456
1.317                0.373469713      175.704636
1.318                0.371191967      175.441394
1.319                0.368905293      175.175661
1.32                 0.366609295      174.907368
1.321                0.364303559      174.636443
1.322                0.361987654      174.362814
1.323                0.359661125      174.086406
1.324                0.357323499      173.807143
1.325                0.354974279      173.524946
1.326                0.352612949      173.239738
1.327                0.350238964      172.951436
1.328                0.347851757      172.659959
1.329                0.345450737      172.365223
1.33                 0.343035282      172.067142
1.331                0.340604745      171.765631
1.332                 0.33815845      171.460603
1.333                0.335695688      171.151969
1.334                0.333215723      170.839641
1.335                0.330717782      170.523529
1.336                0.328201063      170.203545
1.337                0.325664724      169.879599
1.338                0.323107892      169.551601
1.339                0.320529653      169.219464
1.34                 0.317929058        168.8831
1.341                0.315305116      168.542425
1.342                0.312656796      168.197354
1.343                0.309983028      167.847809
1.344                0.307282697      167.493711
1.345                0.304554647      167.134989
1.346                0.301797678      166.771576
1.347                0.299010544       166.40341
1.348                0.296191959      166.030439
1.349                0.293340589      165.652618
1.35                 0.290455057      165.269913
1.351                0.287533943        164.8823
1.352                0.284575785      164.489771
1.353                0.281579079      164.092332
1.354                0.278542282      163.690009
1.355                0.275463816      163.282845
1.356                0.272342068      162.870911
1.357                0.269175395      162.454301
1.358                0.265962131       162.03314
1.359                 0.26270059      161.607588
1.36                 0.259389075      161.177844
1.361                0.256025882      160.744147
1.362                0.252609315       160.30679
1.363                0.249137694      159.866119
1.364                0.245609366       159.42254
1.365                0.242022722      158.976533
1.366                0.238376211      158.528653
1.367                0.234668361      158.079543
1.368                0.230897797      157.629946
1.369                0.227063266      157.180711
1.37                 0.223163663      156.732813
1.371                 0.21919806      156.287362
1.372                0.215165735      155.845621
1.373                0.211066211      155.409024
1.374                0.206899292      154.979194
1.375                0.202665106      154.557964
1.376                 0.19836415      154.147404
1.377                0.193997338      153.749844
1.378                0.189566056      153.367905
1.379                0.185072214      153.004529
1.38                 0.180518314      152.663017
1.381                0.175907502      152.347065
1.382                0.171243648      152.060805
1.383                0.166531404      151.808857
1.384                0.161776287      151.596368
1.385                0.156984753      151.429076
1.386                0.152164274      151.313354
1.387                0.147323424      151.256278
1.388                0.142471962      151.265675
1.389                0.137620923      151.350181
1.39                 0.132782699      151.519292
1.391                0.127971137      151.783391
1.392                0.123201617      152.153769
1.393                 0.11849114      152.642599
1.394                0.113858398      153.262867
1.395                0.109323829      154.028231
1.396                0.104909638      154.952778
1.397                0.100639782      156.050646
1.398               0.0965398738      157.335486
1.399               0.0926369927      158.819705
1.4                 0.0889593581      160.513493
1.401               0.0855358241      162.423607
1.402               0.0823951583      164.551976
1.403               0.0795650787      166.894222
1.404               0.0770710515      169.438297
1.405               0.0749349007      172.163497
1.406               0.0731733362      175.040165
1.407               0.0717965721      178.030339
1.408               0.0708072398     -178.910519
1.409               0.0701997964     -175.830819
1.41                0.0699605657     -172.779532
1.411               0.0700684385     -169.802792
1.412               0.0704961371     -166.940969
1.413               0.0712118508     -164.226645
1.414               0.0721810082     -161.683651
1.415               0.0733679677     -159.327118
1.416               0.0747374684     -157.164282
1.417               0.0762557584     -155.195768
1.418                0.077891383     -153.417036
1.419               0.0796156643      -151.81981
1.42                0.0814029279     -150.393332
1.421               0.0832305386     -149.125391
1.422               0.0850788038      -148.00313
1.423               0.0869307931     -147.013623
1.424               0.0887721114     -146.144286
1.425               0.0905906515     -145.383142
1.426               0.0923763453     -144.718974
1.427               0.0941209237     -144.141408
1.428               0.0958176924     -143.640933
1.429               0.0974613275     -143.208893
1.43                0.0990476902     -142.837448
1.431                0.100573663     -142.519528
1.432                0.102037002     -142.248773
1.433                0.103436212     -142.019476
1.434                0.104770431     -141.826523
1.435                0.106039336      -141.66534
1.436                0.107243053     -141.531834
1.437                0.108382088     -141.422348
1.438                0.109457257     -141.333615
1.439                 0.11046964     -141.262717
1.44                 0.111420521     -141.207047
1.441                0.112311358     -141.164278
1.442                0.113143741     -141.132331
1.443                0.113919362     -141.109347
1.444                0.114639993     -141.093668
1.445                 0.11530746     -141.083812
1.446                0.115923626     -141.078455
1.447                0.116490375     -141.076414
1.448                0.117009596     -141.076633
1.449                0.117483177     -141.078169
1.45                  0.11791299     -141.080178
1.451                0.118300888      -141.08191
1.452                0.118648694     -141.082694
1.453                0.118958201     -141.081933
1.454                0.119231161     -141.079093
1.455                 0.11946929     -141.073702
1.456                 0.11967426     -141.065339
1.457                0.119847698      -141.05363
1.458                0.119991185     -141.038245
1.459                0.120106257     -141.018892
1.46                 0.120194402     -140.995314
1.461                0.120257061     -140.967286
1.462                0.120295627     -140.934609
1.463                 0.12031145     -140.897114
1.464                 0.12030583     -140.854651
1.465                0.120280025     -140.807093
1.466                0.120235248     -140.754334
1.467                0.120172668     -140.696283
1.468                0.120093412     -140.632867
1.469                0.119998566     -140.564024
1.47                 0.119889177     -140.489711
1.471                0.119766253     -140.409893
1.472                0.119630761     -140.324547
1.473                0.119483637     -140.233662
1.474                0.119325776     -140.137235
1.475                0.119158044     -140.035273
1.476                 0.11898127     -139.927791
1.477                0.118796252      -139.81481
1.478                0.118603759     -139.696361
1.479                0.118404527     -139.572479
1.48                 0.118199265     -139.443208
1.481                0.117988653     -139.308596
1.482                0.117773346     -139.168697
1.483                0.117553971     -139.023571
1.484                0.117331129     -138.873281
1.485                  0.1171054     -138.717897
1.486                0.116877336     -138.557493
1.487                0.116647469     -138.392146
1.488                0.116416309     -138.221939
1.489                0.116184343     -138.046958
1.49                 0.115952038     -137.867293
1.491                0.115719841     -137.683037
1.492                0.115488179     -137.494287
1.493                 0.11525746     -137.301144
1.494                0.115028073     -137.103712
1.495                0.114800391     -136.902096
1.496                0.114574767     -136.696408
1.497                0.114351538     -136.486759
1.498                0.114131026     -136.273266
1.499                0.113913533     -136.056046
1.5                  0.113699349      -135.83522
1.501                0.113488746     -135.610912
1.502                0.113281983     -135.383246
1.503                0.113079301     -135.152351
1.504                0.112880931     -134.918356
1.505                0.112687085     -134.681393
1.506                0.112497965     -134.441595
1.507                0.112313757     -134.199099
1.508                0.112134635     -133.954041
1.509                0.111960759     -133.706559
1.51                 0.111792276     -133.456793
1.511                 0.11162932     -133.204884
1.512                0.111472015     -132.950975
1.513                 0.11132047     -132.695207
1.514                0.111174782     -132.437726
1.515                0.111035037     -132.178675
1.516                 0.11090131     -131.918199
1.517                0.110773662     -131.656443
1.518                0.110652145     -131.393553
1.519                0.110536799     -131.129675
1.52                 0.110427651     -130.864953
1.521                0.110324721     -130.599532
1.522                0.110228014     -130.333558
1.523                0.110137528     -130.067174
1.524                0.110053246     -129.800524
1.525                0.109975146      -129.53375
1.526                0.109903191     -129.266993
1.527                0.109837336     -129.000394
1.528                0.109777526     -128.734091
1.529                0.109723696     -128.468222
1.53                  0.10967577     -128.202922
1.531                0.109633664     -127.938326
1.532                0.109597283     -127.674564
1.533                0.109566523     -127.411768
1.534                0.109541271     -127.150065
1.535                0.109521404      -126.88958
1.536                 0.10950679     -126.630436
1.537                0.109497288     -126.372754
1.538                0.109492747      -126.11665
1.539                0.109493008      -125.86224
1.54                 0.109497904     -125.609636
1.541                0.109507256     -125.358945
1.542                0.109520879     -125.110275
1.543                0.109538579     -124.863726
1.544                0.109560152     -124.619398
1.545                0.109585386     -124.377386
1.546                 0.10961406     -124.137782
1.547                0.109645946     -123.900674
1.548                0.109680804     -123.666146
1.549                0.109718389      -123.43428
1.55                 0.109758447      -123.20515
1.551                0.109800712     -122.978831
1.552                0.109844914     -122.755389
1.553                0.109890771      -122.53489
1.554                0.109937995     -122.317393
1.555                0.109986287     -122.102953
1.556                0.110035342     -121.891621
1.557                0.110084843     -121.683443
1.558                0.110134467     -121.478461
1.559                0.110183882     -121.276712
1.56                 0.110232745     -121.078226
1.561                0.110280707      -120.88303
1.562                0.110327408     -120.691147
1.563                0.110372479     -120.502591
1.564                0.110415543     -120.317374
1.565                0.110456213     -120.135499
1.566                0.110494093     -119.956966
1.567                0.110528778     -119.781768
1.568                0.110559851      -119.60989
1.569                 0.11058689     -119.441314
1.57                 0.110609459     -119.276013
1.571                0.110627115     -119.113951
1.572                0.110639404     -118.955089
1.573                0.110645863     -118.799378
1.574                0.110646017      -118.64676
1.575                0.110639384      -118.49717
1.576                 0.11062547     -118.350534
1.577                0.110603773     -118.206769
1.578                0.110573778     -118.065781
1.579                0.110534962     -117.927466
1.58                 0.110486794      -117.79171
1.581                0.110428731     -117.658385
1.582                0.110360221     -117.527354
1.583                0.110280703     -117.398464
1.584                0.110189608     -117.271549
1.585                0.110086358     -117.146428
1.586                0.109970367     -117.022905
1.587                0.109841042     -116.900765
1.588                0.109697783     -116.779777
1.589                0.109539985     -116.659689
1.59                 0.109367037     -116.540228
1.591                0.109178324     -116.421099
1.592                0.108973231     -116.301984
1.593                 0.10875114     -116.182539
1.594                0.108511434      -116.06239
1.595                0.108253499     -115.941136
1.596                0.107976726     -115.818343
1.597                0.107680514     -115.693543
1.598                0.107364271      -115.56623
1.599                0.107027421      -115.43586
1.6                  0.106669403     -115.301845
1.601                0.106289679     -115.163552
1.602                0.105887737     -115.020298